LAMMPS data file via write_data, version 24 Dec 2020, timestep = 0

2048 atoms
2 atom types

0 28.92 xlo xhi
0 28.92 ylo yhi
0 28.92 zlo zhi

Masses

1 58.6934
2 63.546

Atoms # atomic

1 2 0.36150000000000004 0.36150000000000004 0.36150000000000004 0 0 0
2 1 2.169 2.169 0.36150000000000004 0 0 0
3 1 2.169 0.36150000000000004 2.169 0 0 0
4 2 0.36150000000000004 2.169 2.169 0 0 0
5 2 3.9765 0.36150000000000004 0.36150000000000004 0 0 0
6 2 5.784000000000001 2.169 0.36150000000000004 0 0 0
7 1 5.784000000000001 0.36150000000000004 2.169 0 0 0
8 2 3.9765 2.169 2.169 0 0 0
9 1 7.591500000000001 0.36150000000000004 0.36150000000000004 0 0 0
10 1 9.399000000000001 2.169 0.36150000000000004 0 0 0
11 1 9.399000000000001 0.36150000000000004 2.169 0 0 0
12 2 7.591500000000001 2.169 2.169 0 0 0
13 2 11.2065 0.36150000000000004 0.36150000000000004 0 0 0
14 2 13.014 2.169 0.36150000000000004 0 0 0
15 1 13.014 0.36150000000000004 2.169 0 0 0
16 1 11.2065 2.169 2.169 0 0 0
17 2 14.8215 0.36150000000000004 0.36150000000000004 0 0 0
18 1 16.629 2.169 0.36150000000000004 0 0 0
19 1 16.629 0.36150000000000004 2.169 0 0 0
20 1 14.8215 2.169 2.169 0 0 0
21 1 18.436500000000002 0.36150000000000004 0.36150000000000004 0 0 0
22 1 20.244 2.169 0.36150000000000004 0 0 0
23 2 20.244 0.36150000000000004 2.169 0 0 0
24 2 18.436500000000002 2.169 2.169 0 0 0
25 2 22.0515 0.36150000000000004 0.36150000000000004 0 0 0
26 2 23.859 2.169 0.36150000000000004 0 0 0
27 2 23.859 0.36150000000000004 2.169 0 0 0
28 2 22.0515 2.169 2.169 0 0 0
29 2 25.6665 0.36150000000000004 0.36150000000000004 0 0 0
30 2 27.474 2.169 0.36150000000000004 0 0 0
31 1 27.474 0.36150000000000004 2.169 0 0 0
32 2 25.6665 2.169 2.169 0 0 0
33 1 0.36150000000000004 3.9765 0.36150000000000004 0 0 0
34 1 2.169 5.784000000000001 0.36150000000000004 0 0 0
35 1 2.169 3.9765 2.169 0 0 0
36 2 0.36150000000000004 5.784000000000001 2.169 0 0 0
37 2 3.9765 3.9765 0.36150000000000004 0 0 0
38 2 5.784000000000001 5.784000000000001 0.36150000000000004 0 0 0
39 2 5.784000000000001 3.9765 2.169 0 0 0
40 2 3.9765 5.784000000000001 2.169 0 0 0
41 1 7.591500000000001 3.9765 0.36150000000000004 0 0 0
42 2 9.399000000000001 5.784000000000001 0.36150000000000004 0 0 0
43 2 9.399000000000001 3.9765 2.169 0 0 0
44 2 7.591500000000001 5.784000000000001 2.169 0 0 0
45 2 11.2065 3.9765 0.36150000000000004 0 0 0
46 2 13.014 5.784000000000001 0.36150000000000004 0 0 0
47 1 13.014 3.9765 2.169 0 0 0
48 1 11.2065 5.784000000000001 2.169 0 0 0
49 2 14.8215 3.9765 0.36150000000000004 0 0 0
50 2 16.629 5.784000000000001 0.36150000000000004 0 0 0
51 2 16.629 3.9765 2.169 0 0 0
52 1 14.8215 5.784000000000001 2.169 0 0 0
53 2 18.436500000000002 3.9765 0.36150000000000004 0 0 0
54 1 20.244 5.784000000000001 0.36150000000000004 0 0 0
55 2 20.244 3.9765 2.169 0 0 0
56 1 18.436500000000002 5.784000000000001 2.169 0 0 0
57 2 22.0515 3.9765 0.36150000000000004 0 0 0
58 2 23.859 5.784000000000001 0.36150000000000004 0 0 0
59 2 23.859 3.9765 2.169 0 0 0
60 2 22.0515 5.784000000000001 2.169 0 0 0
61 2 25.6665 3.9765 0.36150000000000004 0 0 0
62 1 27.474 5.784000000000001 0.36150000000000004 0 0 0
63 1 27.474 3.9765 2.169 0 0 0
64 2 25.6665 5.784000000000001 2.169 0 0 0
65 1 0.36150000000000004 7.591500000000001 0.36150000000000004 0 0 0
66 1 2.169 9.399000000000001 0.36150000000000004 0 0 0
67 2 2.169 7.591500000000001 2.169 0 0 0
68 2 0.36150000000000004 9.399000000000001 2.169 0 0 0
69 1 3.9765 7.591500000000001 0.36150000000000004 0 0 0
70 1 5.784000000000001 9.399000000000001 0.36150000000000004 0 0 0
71 1 5.784000000000001 7.591500000000001 2.169 0 0 0
72 2 3.9765 9.399000000000001 2.169 0 0 0
73 2 7.591500000000001 7.591500000000001 0.36150000000000004 0 0 0
74 1 9.399000000000001 9.399000000000001 0.36150000000000004 0 0 0
75 1 9.399000000000001 7.591500000000001 2.169 0 0 0
76 2 7.591500000000001 9.399000000000001 2.169 0 0 0
77 2 11.2065 7.591500000000001 0.36150000000000004 0 0 0
78 1 13.014 9.399000000000001 0.36150000000000004 0 0 0
79 2 13.014 7.591500000000001 2.169 0 0 0
80 1 11.2065 9.399000000000001 2.169 0 0 0
81 1 14.8215 7.591500000000001 0.36150000000000004 0 0 0
82 2 16.629 9.399000000000001 0.36150000000000004 0 0 0
83 1 16.629 7.591500000000001 2.169 0 0 0
84 1 14.8215 9.399000000000001 2.169 0 0 0
85 1 18.436500000000002 7.591500000000001 0.36150000000000004 0 0 0
86 1 20.244 9.399000000000001 0.36150000000000004 0 0 0
87 2 20.244 7.591500000000001 2.169 0 0 0
88 1 18.436500000000002 9.399000000000001 2.169 0 0 0
89 1 22.0515 7.591500000000001 0.36150000000000004 0 0 0
90 1 23.859 9.399000000000001 0.36150000000000004 0 0 0
91 1 23.859 7.591500000000001 2.169 0 0 0
92 1 22.0515 9.399000000000001 2.169 0 0 0
93 2 25.6665 7.591500000000001 0.36150000000000004 0 0 0
94 2 27.474 9.399000000000001 0.36150000000000004 0 0 0
95 2 27.474 7.591500000000001 2.169 0 0 0
96 1 25.6665 9.399000000000001 2.169 0 0 0
97 1 0.36150000000000004 11.2065 0.36150000000000004 0 0 0
98 1 2.169 13.014 0.36150000000000004 0 0 0
99 1 2.169 11.2065 2.169 0 0 0
100 1 0.36150000000000004 13.014 2.169 0 0 0
101 1 3.9765 11.2065 0.36150000000000004 0 0 0
102 1 5.784000000000001 13.014 0.36150000000000004 0 0 0
103 2 5.784000000000001 11.2065 2.169 0 0 0
104 1 3.9765 13.014 2.169 0 0 0
105 1 7.591500000000001 11.2065 0.36150000000000004 0 0 0
106 2 9.399000000000001 13.014 0.36150000000000004 0 0 0
107 1 9.399000000000001 11.2065 2.169 0 0 0
108 1 7.591500000000001 13.014 2.169 0 0 0
109 2 11.2065 11.2065 0.36150000000000004 0 0 0
110 1 13.014 13.014 0.36150000000000004 0 0 0
111 1 13.014 11.2065 2.169 0 0 0
112 1 11.2065 13.014 2.169 0 0 0
113 2 14.8215 11.2065 0.36150000000000004 0 0 0
114 2 16.629 13.014 0.36150000000000004 0 0 0
115 2 16.629 11.2065 2.169 0 0 0
116 1 14.8215 13.014 2.169 0 0 0
117 1 18.436500000000002 11.2065 0.36150000000000004 0 0 0
118 2 20.244 13.014 0.36150000000000004 0 0 0
119 1 20.244 11.2065 2.169 0 0 0
120 2 18.436500000000002 13.014 2.169 0 0 0
121 1 22.0515 11.2065 0.36150000000000004 0 0 0
122 1 23.859 13.014 0.36150000000000004 0 0 0
123 1 23.859 11.2065 2.169 0 0 0
124 2 22.0515 13.014 2.169 0 0 0
125 1 25.6665 11.2065 0.36150000000000004 0 0 0
126 2 27.474 13.014 0.36150000000000004 0 0 0
127 1 27.474 11.2065 2.169 0 0 0
128 2 25.6665 13.014 2.169 0 0 0
129 2 0.36150000000000004 14.8215 0.36150000000000004 0 0 0
130 2 2.169 16.629 0.36150000000000004 0 0 0
131 1 2.169 14.8215 2.169 0 0 0
132 1 0.36150000000000004 16.629 2.169 0 0 0
133 2 3.9765 14.8215 0.36150000000000004 0 0 0
134 1 5.784000000000001 16.629 0.36150000000000004 0 0 0
135 1 5.784000000000001 14.8215 2.169 0 0 0
136 1 3.9765 16.629 2.169 0 0 0
137 1 7.591500000000001 14.8215 0.36150000000000004 0 0 0
138 1 9.399000000000001 16.629 0.36150000000000004 0 0 0
139 2 9.399000000000001 14.8215 2.169 0 0 0
140 2 7.591500000000001 16.629 2.169 0 0 0
141 1 11.2065 14.8215 0.36150000000000004 0 0 0
142 2 13.014 16.629 0.36150000000000004 0 0 0
143 1 13.014 14.8215 2.169 0 0 0
144 1 11.2065 16.629 2.169 0 0 0
145 1 14.8215 14.8215 0.36150000000000004 0 0 0
146 2 16.629 16.629 0.36150000000000004 0 0 0
147 1 16.629 14.8215 2.169 0 0 0
148 1 14.8215 16.629 2.169 0 0 0
149 1 18.436500000000002 14.8215 0.36150000000000004 0 0 0
150 2 20.244 16.629 0.36150000000000004 0 0 0
151 2 20.244 14.8215 2.169 0 0 0
152 1 18.436500000000002 16.629 2.169 0 0 0
153 1 22.0515 14.8215 0.36150000000000004 0 0 0
154 2 23.859 16.629 0.36150000000000004 0 0 0
155 1 23.859 14.8215 2.169 0 0 0
156 2 22.0515 16.629 2.169 0 0 0
157 1 25.6665 14.8215 0.36150000000000004 0 0 0
158 1 27.474 16.629 0.36150000000000004 0 0 0
159 1 27.474 14.8215 2.169 0 0 0
160 1 25.6665 16.629 2.169 0 0 0
161 1 0.36150000000000004 18.436500000000002 0.36150000000000004 0 0 0
162 2 2.169 20.244 0.36150000000000004 0 0 0
163 1 2.169 18.436500000000002 2.169 0 0 0
164 2 0.36150000000000004 20.244 2.169 0 0 0
165 2 3.9765 18.436500000000002 0.36150000000000004 0 0 0
166 1 5.784000000000001 20.244 0.36150000000000004 0 0 0
167 2 5.784000000000001 18.436500000000002 2.169 0 0 0
168 2 3.9765 20.244 2.169 0 0 0
169 2 7.591500000000001 18.436500000000002 0.36150000000000004 0 0 0
170 1 9.399000000000001 20.244 0.36150000000000004 0 0 0
171 1 9.399000000000001 18.436500000000002 2.169 0 0 0
172 1 7.591500000000001 20.244 2.169 0 0 0
173 2 11.2065 18.436500000000002 0.36150000000000004 0 0 0
174 1 13.014 20.244 0.36150000000000004 0 0 0
175 1 13.014 18.436500000000002 2.169 0 0 0
176 1 11.2065 20.244 2.169 0 0 0
177 2 14.8215 18.436500000000002 0.36150000000000004 0 0 0
178 1 16.629 20.244 0.36150000000000004 0 0 0
179 2 16.629 18.436500000000002 2.169 0 0 0
180 1 14.8215 20.244 2.169 0 0 0
181 2 18.436500000000002 18.436500000000002 0.36150000000000004 0 0 0
182 1 20.244 20.244 0.36150000000000004 0 0 0
183 1 20.244 18.436500000000002 2.169 0 0 0
184 1 18.436500000000002 20.244 2.169 0 0 0
185 1 22.0515 18.436500000000002 0.36150000000000004 0 0 0
186 1 23.859 20.244 0.36150000000000004 0 0 0
187 1 23.859 18.436500000000002 2.169 0 0 0
188 2 22.0515 20.244 2.169 0 0 0
189 1 25.6665 18.436500000000002 0.36150000000000004 0 0 0
190 1 27.474 20.244 0.36150000000000004 0 0 0
191 2 27.474 18.436500000000002 2.169 0 0 0
192 1 25.6665 20.244 2.169 0 0 0
193 2 0.36150000000000004 22.0515 0.36150000000000004 0 0 0
194 2 2.169 23.859 0.36150000000000004 0 0 0
195 2 2.169 22.0515 2.169 0 0 0
196 1 0.36150000000000004 23.859 2.169 0 0 0
197 2 3.9765 22.0515 0.36150000000000004 0 0 0
198 2 5.784000000000001 23.859 0.36150000000000004 0 0 0
199 2 5.784000000000001 22.0515 2.169 0 0 0
200 1 3.9765 23.859 2.169 0 0 0
201 1 7.591500000000001 22.0515 0.36150000000000004 0 0 0
202 2 9.399000000000001 23.859 0.36150000000000004 0 0 0
203 1 9.399000000000001 22.0515 2.169 0 0 0
204 2 7.591500000000001 23.859 2.169 0 0 0
205 1 11.2065 22.0515 0.36150000000000004 0 0 0
206 1 13.014 23.859 0.36150000000000004 0 0 0
207 1 13.014 22.0515 2.169 0 0 0
208 2 11.2065 23.859 2.169 0 0 0
209 2 14.8215 22.0515 0.36150000000000004 0 0 0
210 2 16.629 23.859 0.36150000000000004 0 0 0
211 2 16.629 22.0515 2.169 0 0 0
212 1 14.8215 23.859 2.169 0 0 0
213 1 18.436500000000002 22.0515 0.36150000000000004 0 0 0
214 1 20.244 23.859 0.36150000000000004 0 0 0
215 1 20.244 22.0515 2.169 0 0 0
216 2 18.436500000000002 23.859 2.169 0 0 0
217 2 22.0515 22.0515 0.36150000000000004 0 0 0
218 2 23.859 23.859 0.36150000000000004 0 0 0
219 1 23.859 22.0515 2.169 0 0 0
220 2 22.0515 23.859 2.169 0 0 0
221 2 25.6665 22.0515 0.36150000000000004 0 0 0
222 2 27.474 23.859 0.36150000000000004 0 0 0
223 1 27.474 22.0515 2.169 0 0 0
224 2 25.6665 23.859 2.169 0 0 0
225 2 0.36150000000000004 25.6665 0.36150000000000004 0 0 0
226 2 2.169 27.474 0.36150000000000004 0 0 0
227 2 2.169 25.6665 2.169 0 0 0
228 2 0.36150000000000004 27.474 2.169 0 0 0
229 2 3.9765 25.6665 0.36150000000000004 0 0 0
230 1 5.784000000000001 27.474 0.36150000000000004 0 0 0
231 2 5.784000000000001 25.6665 2.169 0 0 0
232 1 3.9765 27.474 2.169 0 0 0
233 1 7.591500000000001 25.6665 0.36150000000000004 0 0 0
234 1 9.399000000000001 27.474 0.36150000000000004 0 0 0
235 1 9.399000000000001 25.6665 2.169 0 0 0
236 1 7.591500000000001 27.474 2.169 0 0 0
237 1 11.2065 25.6665 0.36150000000000004 0 0 0
238 1 13.014 27.474 0.36150000000000004 0 0 0
239 2 13.014 25.6665 2.169 0 0 0
240 2 11.2065 27.474 2.169 0 0 0
241 2 14.8215 25.6665 0.36150000000000004 0 0 0
242 2 16.629 27.474 0.36150000000000004 0 0 0
243 2 16.629 25.6665 2.169 0 0 0
244 1 14.8215 27.474 2.169 0 0 0
245 1 18.436500000000002 25.6665 0.36150000000000004 0 0 0
246 1 20.244 27.474 0.36150000000000004 0 0 0
247 1 20.244 25.6665 2.169 0 0 0
248 1 18.436500000000002 27.474 2.169 0 0 0
249 1 22.0515 25.6665 0.36150000000000004 0 0 0
250 2 23.859 27.474 0.36150000000000004 0 0 0
251 1 23.859 25.6665 2.169 0 0 0
252 1 22.0515 27.474 2.169 0 0 0
253 1 25.6665 25.6665 0.36150000000000004 0 0 0
254 1 27.474 27.474 0.36150000000000004 0 0 0
255 1 27.474 25.6665 2.169 0 0 0
256 1 25.6665 27.474 2.169 0 0 0
257 2 0.36150000000000004 0.36150000000000004 3.9765 0 0 0
258 2 2.169 2.169 3.9765 0 0 0
259 1 2.169 0.36150000000000004 5.784000000000001 0 0 0
260 1 0.36150000000000004 2.169 5.784000000000001 0 0 0
261 1 3.9765 0.36150000000000004 3.9765 0 0 0
262 2 5.784000000000001 2.169 3.9765 0 0 0
263 1 5.784000000000001 0.36150000000000004 5.784000000000001 0 0 0
264 1 3.9765 2.169 5.784000000000001 0 0 0
265 2 7.591500000000001 0.36150000000000004 3.9765 0 0 0
266 2 9.399000000000001 2.169 3.9765 0 0 0
267 1 9.399000000000001 0.36150000000000004 5.784000000000001 0 0 0
268 2 7.591500000000001 2.169 5.784000000000001 0 0 0
269 1 11.2065 0.36150000000000004 3.9765 0 0 0
270 2 13.014 2.169 3.9765 0 0 0
271 2 13.014 0.36150000000000004 5.784000000000001 0 0 0
272 2 11.2065 2.169 5.784000000000001 0 0 0
273 1 14.8215 0.36150000000000004 3.9765 0 0 0
274 1 16.629 2.169 3.9765 0 0 0
275 1 16.629 0.36150000000000004 5.784000000000001 0 0 0
276 2 14.8215 2.169 5.784000000000001 0 0 0
277 2 18.436500000000002 0.36150000000000004 3.9765 0 0 0
278 2 20.244 2.169 3.9765 0 0 0
279 2 20.244 0.36150000000000004 5.784000000000001 0 0 0
280 2 18.436500000000002 2.169 5.784000000000001 0 0 0
281 2 22.0515 0.36150000000000004 3.9765 0 0 0
282 2 23.859 2.169 3.9765 0 0 0
283 2 23.859 0.36150000000000004 5.784000000000001 0 0 0
284 2 22.0515 2.169 5.784000000000001 0 0 0
285 2 25.6665 0.36150000000000004 3.9765 0 0 0
286 1 27.474 2.169 3.9765 0 0 0
287 2 27.474 0.36150000000000004 5.784000000000001 0 0 0
288 2 25.6665 2.169 5.784000000000001 0 0 0
289 1 0.36150000000000004 3.9765 3.9765 0 0 0
290 1 2.169 5.784000000000001 3.9765 0 0 0
291 2 2.169 3.9765 5.784000000000001 0 0 0
292 1 0.36150000000000004 5.784000000000001 5.784000000000001 0 0 0
293 2 3.9765 3.9765 3.9765 0 0 0
294 1 5.784000000000001 5.784000000000001 3.9765 0 0 0
295 2 5.784000000000001 3.9765 5.784000000000001 0 0 0
296 2 3.9765 5.784000000000001 5.784000000000001 0 0 0
297 2 7.591500000000001 3.9765 3.9765 0 0 0
298 2 9.399000000000001 5.784000000000001 3.9765 0 0 0
299 1 9.399000000000001 3.9765 5.784000000000001 0 0 0
300 2 7.591500000000001 5.784000000000001 5.784000000000001 0 0 0
301 2 11.2065 3.9765 3.9765 0 0 0
302 1 13.014 5.784000000000001 3.9765 0 0 0
303 1 13.014 3.9765 5.784000000000001 0 0 0
304 1 11.2065 5.784000000000001 5.784000000000001 0 0 0
305 1 14.8215 3.9765 3.9765 0 0 0
306 2 16.629 5.784000000000001 3.9765 0 0 0
307 2 16.629 3.9765 5.784000000000001 0 0 0
308 1 14.8215 5.784000000000001 5.784000000000001 0 0 0
309 1 18.436500000000002 3.9765 3.9765 0 0 0
310 1 20.244 5.784000000000001 3.9765 0 0 0
311 2 20.244 3.9765 5.784000000000001 0 0 0
312 1 18.436500000000002 5.784000000000001 5.784000000000001 0 0 0
313 2 22.0515 3.9765 3.9765 0 0 0
314 1 23.859 5.784000000000001 3.9765 0 0 0
315 1 23.859 3.9765 5.784000000000001 0 0 0
316 2 22.0515 5.784000000000001 5.784000000000001 0 0 0
317 2 25.6665 3.9765 3.9765 0 0 0
318 1 27.474 5.784000000000001 3.9765 0 0 0
319 1 27.474 3.9765 5.784000000000001 0 0 0
320 2 25.6665 5.784000000000001 5.784000000000001 0 0 0
321 1 0.36150000000000004 7.591500000000001 3.9765 0 0 0
322 1 2.169 9.399000000000001 3.9765 0 0 0
323 1 2.169 7.591500000000001 5.784000000000001 0 0 0
324 2 0.36150000000000004 9.399000000000001 5.784000000000001 0 0 0
325 2 3.9765 7.591500000000001 3.9765 0 0 0
326 2 5.784000000000001 9.399000000000001 3.9765 0 0 0
327 1 5.784000000000001 7.591500000000001 5.784000000000001 0 0 0
328 1 3.9765 9.399000000000001 5.784000000000001 0 0 0
329 2 7.591500000000001 7.591500000000001 3.9765 0 0 0
330 2 9.399000000000001 9.399000000000001 3.9765 0 0 0
331 2 9.399000000000001 7.591500000000001 5.784000000000001 0 0 0
332 1 7.591500000000001 9.399000000000001 5.784000000000001 0 0 0
333 1 11.2065 7.591500000000001 3.9765 0 0 0
334 2 13.014 9.399000000000001 3.9765 0 0 0
335 1 13.014 7.591500000000001 5.784000000000001 0 0 0
336 2 11.2065 9.399000000000001 5.784000000000001 0 0 0
337 1 14.8215 7.591500000000001 3.9765 0 0 0
338 2 16.629 9.399000000000001 3.9765 0 0 0
339 2 16.629 7.591500000000001 5.784000000000001 0 0 0
340 1 14.8215 9.399000000000001 5.784000000000001 0 0 0
341 2 18.436500000000002 7.591500000000001 3.9765 0 0 0
342 2 20.244 9.399000000000001 3.9765 0 0 0
343 1 20.244 7.591500000000001 5.784000000000001 0 0 0
344 2 18.436500000000002 9.399000000000001 5.784000000000001 0 0 0
345 2 22.0515 7.591500000000001 3.9765 0 0 0
346 2 23.859 9.399000000000001 3.9765 0 0 0
347 2 23.859 7.591500000000001 5.784000000000001 0 0 0
348 1 22.0515 9.399000000000001 5.784000000000001 0 0 0
349 2 25.6665 7.591500000000001 3.9765 0 0 0
350 1 27.474 9.399000000000001 3.9765 0 0 0
351 1 27.474 7.591500000000001 5.784000000000001 0 0 0
352 2 25.6665 9.399000000000001 5.784000000000001 0 0 0
353 2 0.36150000000000004 11.2065 3.9765 0 0 0
354 1 2.169 13.014 3.9765 0 0 0
355 1 2.169 11.2065 5.784000000000001 0 0 0
356 1 0.36150000000000004 13.014 5.784000000000001 0 0 0
357 2 3.9765 11.2065 3.9765 0 0 0
358 2 5.784000000000001 13.014 3.9765 0 0 0
359 2 5.784000000000001 11.2065 5.784000000000001 0 0 0
360 1 3.9765 13.014 5.784000000000001 0 0 0
361 2 7.591500000000001 11.2065 3.9765 0 0 0
362 1 9.399000000000001 13.014 3.9765 0 0 0
363 1 9.399000000000001 11.2065 5.784000000000001 0 0 0
364 2 7.591500000000001 13.014 5.784000000000001 0 0 0
365 2 11.2065 11.2065 3.9765 0 0 0
366 2 13.014 13.014 3.9765 0 0 0
367 2 13.014 11.2065 5.784000000000001 0 0 0
368 2 11.2065 13.014 5.784000000000001 0 0 0
369 1 14.8215 11.2065 3.9765 0 0 0
370 2 16.629 13.014 3.9765 0 0 0
371 2 16.629 11.2065 5.784000000000001 0 0 0
372 1 14.8215 13.014 5.784000000000001 0 0 0
373 2 18.436500000000002 11.2065 3.9765 0 0 0
374 2 20.244 13.014 3.9765 0 0 0
375 2 20.244 11.2065 5.784000000000001 0 0 0
376 2 18.436500000000002 13.014 5.784000000000001 0 0 0
377 2 22.0515 11.2065 3.9765 0 0 0
378 2 23.859 13.014 3.9765 0 0 0
379 1 23.859 11.2065 5.784000000000001 0 0 0
380 1 22.0515 13.014 5.784000000000001 0 0 0
381 1 25.6665 11.2065 3.9765 0 0 0
382 1 27.474 13.014 3.9765 0 0 0
383 1 27.474 11.2065 5.784000000000001 0 0 0
384 2 25.6665 13.014 5.784000000000001 0 0 0
385 2 0.36150000000000004 14.8215 3.9765 0 0 0
386 2 2.169 16.629 3.9765 0 0 0
387 2 2.169 14.8215 5.784000000000001 0 0 0
388 2 0.36150000000000004 16.629 5.784000000000001 0 0 0
389 1 3.9765 14.8215 3.9765 0 0 0
390 1 5.784000000000001 16.629 3.9765 0 0 0
391 2 5.784000000000001 14.8215 5.784000000000001 0 0 0
392 2 3.9765 16.629 5.784000000000001 0 0 0
393 2 7.591500000000001 14.8215 3.9765 0 0 0
394 2 9.399000000000001 16.629 3.9765 0 0 0
395 2 9.399000000000001 14.8215 5.784000000000001 0 0 0
396 2 7.591500000000001 16.629 5.784000000000001 0 0 0
397 1 11.2065 14.8215 3.9765 0 0 0
398 2 13.014 16.629 3.9765 0 0 0
399 2 13.014 14.8215 5.784000000000001 0 0 0
400 2 11.2065 16.629 5.784000000000001 0 0 0
401 1 14.8215 14.8215 3.9765 0 0 0
402 2 16.629 16.629 3.9765 0 0 0
403 2 16.629 14.8215 5.784000000000001 0 0 0
404 1 14.8215 16.629 5.784000000000001 0 0 0
405 2 18.436500000000002 14.8215 3.9765 0 0 0
406 2 20.244 16.629 3.9765 0 0 0
407 1 20.244 14.8215 5.784000000000001 0 0 0
408 1 18.436500000000002 16.629 5.784000000000001 0 0 0
409 1 22.0515 14.8215 3.9765 0 0 0
410 1 23.859 16.629 3.9765 0 0 0
411 1 23.859 14.8215 5.784000000000001 0 0 0
412 1 22.0515 16.629 5.784000000000001 0 0 0
413 1 25.6665 14.8215 3.9765 0 0 0
414 2 27.474 16.629 3.9765 0 0 0
415 2 27.474 14.8215 5.784000000000001 0 0 0
416 2 25.6665 16.629 5.784000000000001 0 0 0
417 1 0.36150000000000004 18.436500000000002 3.9765 0 0 0
418 1 2.169 20.244 3.9765 0 0 0
419 2 2.169 18.436500000000002 5.784000000000001 0 0 0
420 1 0.36150000000000004 20.244 5.784000000000001 0 0 0
421 1 3.9765 18.436500000000002 3.9765 0 0 0
422 1 5.784000000000001 20.244 3.9765 0 0 0
423 2 5.784000000000001 18.436500000000002 5.784000000000001 0 0 0
424 2 3.9765 20.244 5.784000000000001 0 0 0
425 2 7.591500000000001 18.436500000000002 3.9765 0 0 0
426 1 9.399000000000001 20.244 3.9765 0 0 0
427 2 9.399000000000001 18.436500000000002 5.784000000000001 0 0 0
428 1 7.591500000000001 20.244 5.784000000000001 0 0 0
429 1 11.2065 18.436500000000002 3.9765 0 0 0
430 1 13.014 20.244 3.9765 0 0 0
431 1 13.014 18.436500000000002 5.784000000000001 0 0 0
432 2 11.2065 20.244 5.784000000000001 0 0 0
433 1 14.8215 18.436500000000002 3.9765 0 0 0
434 1 16.629 20.244 3.9765 0 0 0
435 2 16.629 18.436500000000002 5.784000000000001 0 0 0
436 2 14.8215 20.244 5.784000000000001 0 0 0
437 1 18.436500000000002 18.436500000000002 3.9765 0 0 0
438 2 20.244 20.244 3.9765 0 0 0
439 1 20.244 18.436500000000002 5.784000000000001 0 0 0
440 1 18.436500000000002 20.244 5.784000000000001 0 0 0
441 2 22.0515 18.436500000000002 3.9765 0 0 0
442 1 23.859 20.244 3.9765 0 0 0
443 2 23.859 18.436500000000002 5.784000000000001 0 0 0
444 2 22.0515 20.244 5.784000000000001 0 0 0
445 1 25.6665 18.436500000000002 3.9765 0 0 0
446 2 27.474 20.244 3.9765 0 0 0
447 2 27.474 18.436500000000002 5.784000000000001 0 0 0
448 1 25.6665 20.244 5.784000000000001 0 0 0
449 2 0.36150000000000004 22.0515 3.9765 0 0 0
450 2 2.169 23.859 3.9765 0 0 0
451 2 2.169 22.0515 5.784000000000001 0 0 0
452 2 0.36150000000000004 23.859 5.784000000000001 0 0 0
453 1 3.9765 22.0515 3.9765 0 0 0
454 2 5.784000000000001 23.859 3.9765 0 0 0
455 2 5.784000000000001 22.0515 5.784000000000001 0 0 0
456 1 3.9765 23.859 5.784000000000001 0 0 0
457 2 7.591500000000001 22.0515 3.9765 0 0 0
458 1 9.399000000000001 23.859 3.9765 0 0 0
459 2 9.399000000000001 22.0515 5.784000000000001 0 0 0
460 1 7.591500000000001 23.859 5.784000000000001 0 0 0
461 1 11.2065 22.0515 3.9765 0 0 0
462 2 13.014 23.859 3.9765 0 0 0
463 2 13.014 22.0515 5.784000000000001 0 0 0
464 1 11.2065 23.859 5.784000000000001 0 0 0
465 1 14.8215 22.0515 3.9765 0 0 0
466 2 16.629 23.859 3.9765 0 0 0
467 2 16.629 22.0515 5.784000000000001 0 0 0
468 1 14.8215 23.859 5.784000000000001 0 0 0
469 1 18.436500000000002 22.0515 3.9765 0 0 0
470 1 20.244 23.859 3.9765 0 0 0
471 1 20.244 22.0515 5.784000000000001 0 0 0
472 2 18.436500000000002 23.859 5.784000000000001 0 0 0
473 1 22.0515 22.0515 3.9765 0 0 0
474 1 23.859 23.859 3.9765 0 0 0
475 1 23.859 22.0515 5.784000000000001 0 0 0
476 2 22.0515 23.859 5.784000000000001 0 0 0
477 1 25.6665 22.0515 3.9765 0 0 0
478 1 27.474 23.859 3.9765 0 0 0
479 1 27.474 22.0515 5.784000000000001 0 0 0
480 1 25.6665 23.859 5.784000000000001 0 0 0
481 1 0.36150000000000004 25.6665 3.9765 0 0 0
482 2 2.169 27.474 3.9765 0 0 0
483 2 2.169 25.6665 5.784000000000001 0 0 0
484 2 0.36150000000000004 27.474 5.784000000000001 0 0 0
485 1 3.9765 25.6665 3.9765 0 0 0
486 2 5.784000000000001 27.474 3.9765 0 0 0
487 1 5.784000000000001 25.6665 5.784000000000001 0 0 0
488 2 3.9765 27.474 5.784000000000001 0 0 0
489 2 7.591500000000001 25.6665 3.9765 0 0 0
490 2 9.399000000000001 27.474 3.9765 0 0 0
491 1 9.399000000000001 25.6665 5.784000000000001 0 0 0
492 2 7.591500000000001 27.474 5.784000000000001 0 0 0
493 2 11.2065 25.6665 3.9765 0 0 0
494 2 13.014 27.474 3.9765 0 0 0
495 2 13.014 25.6665 5.784000000000001 0 0 0
496 1 11.2065 27.474 5.784000000000001 0 0 0
497 1 14.8215 25.6665 3.9765 0 0 0
498 1 16.629 27.474 3.9765 0 0 0
499 2 16.629 25.6665 5.784000000000001 0 0 0
500 2 14.8215 27.474 5.784000000000001 0 0 0
501 1 18.436500000000002 25.6665 3.9765 0 0 0
502 2 20.244 27.474 3.9765 0 0 0
503 2 20.244 25.6665 5.784000000000001 0 0 0
504 1 18.436500000000002 27.474 5.784000000000001 0 0 0
505 2 22.0515 25.6665 3.9765 0 0 0
506 1 23.859 27.474 3.9765 0 0 0
507 1 23.859 25.6665 5.784000000000001 0 0 0
508 2 22.0515 27.474 5.784000000000001 0 0 0
509 1 25.6665 25.6665 3.9765 0 0 0
510 1 27.474 27.474 3.9765 0 0 0
511 1 27.474 25.6665 5.784000000000001 0 0 0
512 1 25.6665 27.474 5.784000000000001 0 0 0
513 2 0.36150000000000004 0.36150000000000004 7.591500000000001 0 0 0
514 2 2.169 2.169 7.591500000000001 0 0 0
515 2 2.169 0.36150000000000004 9.399000000000001 0 0 0
516 2 0.36150000000000004 2.169 9.399000000000001 0 0 0
517 1 3.9765 0.36150000000000004 7.591500000000001 0 0 0
518 1 5.784000000000001 2.169 7.591500000000001 0 0 0
519 2 5.784000000000001 0.36150000000000004 9.399000000000001 0 0 0
520 2 3.9765 2.169 9.399000000000001 0 0 0
521 1 7.591500000000001 0.36150000000000004 7.591500000000001 0 0 0
522 2 9.399000000000001 2.169 7.591500000000001 0 0 0
523 1 9.399000000000001 0.36150000000000004 9.399000000000001 0 0 0
524 2 7.591500000000001 2.169 9.399000000000001 0 0 0
525 1 11.2065 0.36150000000000004 7.591500000000001 0 0 0
526 2 13.014 2.169 7.591500000000001 0 0 0
527 1 13.014 0.36150000000000004 9.399000000000001 0 0 0
528 1 11.2065 2.169 9.399000000000001 0 0 0
529 2 14.8215 0.36150000000000004 7.591500000000001 0 0 0
530 2 16.629 2.169 7.591500000000001 0 0 0
531 1 16.629 0.36150000000000004 9.399000000000001 0 0 0
532 2 14.8215 2.169 9.399000000000001 0 0 0
533 2 18.436500000000002 0.36150000000000004 7.591500000000001 0 0 0
534 1 20.244 2.169 7.591500000000001 0 0 0
535 1 20.244 0.36150000000000004 9.399000000000001 0 0 0
536 2 18.436500000000002 2.169 9.399000000000001 0 0 0
537 1 22.0515 0.36150000000000004 7.591500000000001 0 0 0
538 1 23.859 2.169 7.591500000000001 0 0 0
539 1 23.859 0.36150000000000004 9.399000000000001 0 0 0
540 2 22.0515 2.169 9.399000000000001 0 0 0
541 1 25.6665 0.36150000000000004 7.591500000000001 0 0 0
542 1 27.474 2.169 7.591500000000001 0 0 0
543 2 27.474 0.36150000000000004 9.399000000000001 0 0 0
544 2 25.6665 2.169 9.399000000000001 0 0 0
545 2 0.36150000000000004 3.9765 7.591500000000001 0 0 0
546 2 2.169 5.784000000000001 7.591500000000001 0 0 0
547 2 2.169 3.9765 9.399000000000001 0 0 0
548 1 0.36150000000000004 5.784000000000001 9.399000000000001 0 0 0
549 1 3.9765 3.9765 7.591500000000001 0 0 0
550 1 5.784000000000001 5.784000000000001 7.591500000000001 0 0 0
551 1 5.784000000000001 3.9765 9.399000000000001 0 0 0
552 1 3.9765 5.784000000000001 9.399000000000001 0 0 0
553 2 7.591500000000001 3.9765 7.591500000000001 0 0 0
554 2 9.399000000000001 5.784000000000001 7.591500000000001 0 0 0
555 2 9.399000000000001 3.9765 9.399000000000001 0 0 0
556 1 7.591500000000001 5.784000000000001 9.399000000000001 0 0 0
557 1 11.2065 3.9765 7.591500000000001 0 0 0
558 1 13.014 5.784000000000001 7.591500000000001 0 0 0
559 1 13.014 3.9765 9.399000000000001 0 0 0
560 1 11.2065 5.784000000000001 9.399000000000001 0 0 0
561 1 14.8215 3.9765 7.591500000000001 0 0 0
562 1 16.629 5.784000000000001 7.591500000000001 0 0 0
563 2 16.629 3.9765 9.399000000000001 0 0 0
564 1 14.8215 5.784000000000001 9.399000000000001 0 0 0
565 1 18.436500000000002 3.9765 7.591500000000001 0 0 0
566 2 20.244 5.784000000000001 7.591500000000001 0 0 0
567 2 20.244 3.9765 9.399000000000001 0 0 0
568 1 18.436500000000002 5.784000000000001 9.399000000000001 0 0 0
569 1 22.0515 3.9765 7.591500000000001 0 0 0
570 1 23.859 5.784000000000001 7.591500000000001 0 0 0
571 1 23.859 3.9765 9.399000000000001 0 0 0
572 1 22.0515 5.784000000000001 9.399000000000001 0 0 0
573 2 25.6665 3.9765 7.591500000000001 0 0 0
574 1 27.474 5.784000000000001 7.591500000000001 0 0 0
575 2 27.474 3.9765 9.399000000000001 0 0 0
576 1 25.6665 5.784000000000001 9.399000000000001 0 0 0
577 1 0.36150000000000004 7.591500000000001 7.591500000000001 0 0 0
578 1 2.169 9.399000000000001 7.591500000000001 0 0 0
579 2 2.169 7.591500000000001 9.399000000000001 0 0 0
580 2 0.36150000000000004 9.399000000000001 9.399000000000001 0 0 0
581 2 3.9765 7.591500000000001 7.591500000000001 0 0 0
582 1 5.784000000000001 9.399000000000001 7.591500000000001 0 0 0
583 2 5.784000000000001 7.591500000000001 9.399000000000001 0 0 0
584 1 3.9765 9.399000000000001 9.399000000000001 0 0 0
585 1 7.591500000000001 7.591500000000001 7.591500000000001 0 0 0
586 2 9.399000000000001 9.399000000000001 7.591500000000001 0 0 0
587 2 9.399000000000001 7.591500000000001 9.399000000000001 0 0 0
588 1 7.591500000000001 9.399000000000001 9.399000000000001 0 0 0
589 1 11.2065 7.591500000000001 7.591500000000001 0 0 0
590 2 13.014 9.399000000000001 7.591500000000001 0 0 0
591 1 13.014 7.591500000000001 9.399000000000001 0 0 0
592 1 11.2065 9.399000000000001 9.399000000000001 0 0 0
593 2 14.8215 7.591500000000001 7.591500000000001 0 0 0
594 1 16.629 9.399000000000001 7.591500000000001 0 0 0
595 2 16.629 7.591500000000001 9.399000000000001 0 0 0
596 2 14.8215 9.399000000000001 9.399000000000001 0 0 0
597 2 18.436500000000002 7.591500000000001 7.591500000000001 0 0 0
598 2 20.244 9.399000000000001 7.591500000000001 0 0 0
599 1 20.244 7.591500000000001 9.399000000000001 0 0 0
600 2 18.436500000000002 9.399000000000001 9.399000000000001 0 0 0
601 1 22.0515 7.591500000000001 7.591500000000001 0 0 0
602 2 23.859 9.399000000000001 7.591500000000001 0 0 0
603 2 23.859 7.591500000000001 9.399000000000001 0 0 0
604 2 22.0515 9.399000000000001 9.399000000000001 0 0 0
605 1 25.6665 7.591500000000001 7.591500000000001 0 0 0
606 1 27.474 9.399000000000001 7.591500000000001 0 0 0
607 2 27.474 7.591500000000001 9.399000000000001 0 0 0
608 1 25.6665 9.399000000000001 9.399000000000001 0 0 0
609 1 0.36150000000000004 11.2065 7.591500000000001 0 0 0
610 2 2.169 13.014 7.591500000000001 0 0 0
611 2 2.169 11.2065 9.399000000000001 0 0 0
612 1 0.36150000000000004 13.014 9.399000000000001 0 0 0